
.Version 8.0.0 of ABINIT 
.(MPI version, prepared for a x86_64_darwin15.0.0_gnu5.2 computer) 

.Copyright (C) 1998-2015 ABINIT group . 
 ABINIT comes with ABSOLUTELY NO WARRANTY.
 It is free software, and you are welcome to redistribute it
 under certain conditions (GNU General Public License,
 see ~abinit/COPYING or http://www.gnu.org/copyleft/gpl.txt).

 ABINIT is a project of the Universite Catholique de Louvain,
 Corning Inc. and other collaborators, see ~abinit/doc/developers/contributors.txt .
 Please read ~abinit/doc/users/acknowledgments.html for suggested
 acknowledgments of the ABINIT effort.
 For more information, see http://www.abinit.org .

.Starting date : Sun 27 Mar 2016.
- ( at 09h43 )
  
- input  file    -> /Users/Antonius/Work/kTools/abitools/Examples/01-banstructure/Bandstructure/calc.in
- output file    -> /Users/Antonius/Work/kTools/abitools/Examples/01-banstructure/Bandstructure/calc.out
- root for input  files -> /Users/Antonius/Work/kTools/abitools/Examples/01-banstructure/Bandstructure/input_data/idat_calc
- root for output files -> /Users/Antonius/Work/kTools/abitools/Examples/01-banstructure/Bandstructure/run/out_data/odat_calc


 DATASET    1 : space group Fd -3 m (#227); Bravais cF (face-center cubic)
================================================================================
 Values of the parameters that define the memory need for DATASET  1.
   intxc =         0  ionmov =         0    iscf =         7 xclevel =         1
  lmnmax =         2   lnmax =         2   mband =         5  mffmem =         1
P  mgfft =        27   mkmem =         3 mpssoang=         3     mpw =       763
  mqgrid =      3001   natom =         2    nfft =     19683    nkpt =        10
  nloalg =         4  nspden =         1 nspinor =         1  nsppol =         1
    nsym =        48  n1xccc =      2501  ntypat =         1  occopt =         1
================================================================================
P This job should need less than                       6.393 Mbytes of memory.
  Rough estimation (10% accuracy) of disk space for files :
_ WF disk file :      0.584 Mbytes ; DEN or POT disk file :      0.152 Mbytes.
================================================================================


 DATASET    2 : space group Fd -3 m (#227); Bravais cF (face-center cubic)
================================================================================
 Values of the parameters that define the memory need for DATASET  2.
   intxc =         0  ionmov =         0    iscf =        -2 xclevel =         1
  lmnmax =         2   lnmax =         2   mband =         8  mffmem =         1
P  mgfft =        27   mkmem =        11 mpssoang=         3     mpw =       763
  mqgrid =      3001   natom =         2    nfft =     19683    nkpt =        44
  nloalg =         4  nspden =         1 nspinor =         1  nsppol =         1
    nsym =        48  n1xccc =      2501  ntypat =         1  occopt =         1
================================================================================
P This job should need less than                       4.958 Mbytes of memory.
  Rough estimation (10% accuracy) of disk space for files :
_ WF disk file :      4.100 Mbytes ; DEN or POT disk file :      0.152 Mbytes.
================================================================================

--------------------------------------------------------------------------------
------------- Echo of variables that govern the present computation ------------
--------------------------------------------------------------------------------
-
- outvars: echo of selected default values                                      
-   accesswff0 =  0 , fftalg0 =112 , wfoptalg0 =  0
-
- outvars: echo of global parameters not present in the input file              
-  max_nthreads =    0
-
 -outvars: echo values of preprocessed input variables --------
            acell      1.0263000000E+01  1.0263000000E+01  1.0263000000E+01 Bohr
              amu      2.80855000E+01
           diemac      9.00000000E+00
             ecut      1.50000000E+01 Hartree
           ecutsm      5.00000000E-01 Hartree
-          fftalg         112
           irdden1          0
           irdden2          1
             iscf1          7
             iscf2         -2
           istwfk2       7    0    0    0    0    0    0    0    0    0
                         0    0    0    0    0    0    0    0    0    0
                         0    0    0    2    0    0    0    0    0    0
                         0    0    0    0    0    0    0    0    0    0
                         0    0    0    3
           jdtset        1    2
              kpt1    -1.25000000E-01 -2.50000000E-01  0.00000000E+00
                      -1.25000000E-01  5.00000000E-01  0.00000000E+00
                      -2.50000000E-01 -3.75000000E-01  0.00000000E+00
                      -1.25000000E-01 -3.75000000E-01  1.25000000E-01
                      -1.25000000E-01  2.50000000E-01  0.00000000E+00
                      -2.50000000E-01  3.75000000E-01  0.00000000E+00
                      -3.75000000E-01  5.00000000E-01  0.00000000E+00
                      -2.50000000E-01  5.00000000E-01  1.25000000E-01
                      -1.25000000E-01  0.00000000E+00  0.00000000E+00
                      -3.75000000E-01  0.00000000E+00  0.00000000E+00
              kpt2     5.00000000E-01  5.00000000E-01  0.00000000E+00
                       4.78260870E-01  4.78260870E-01  0.00000000E+00
                       4.56521739E-01  4.56521739E-01  0.00000000E+00
                       4.34782609E-01  4.34782609E-01  0.00000000E+00
                       4.13043478E-01  4.13043478E-01  0.00000000E+00
                       3.91304348E-01  3.91304348E-01  0.00000000E+00
                       3.69565217E-01  3.69565217E-01  0.00000000E+00
                       3.47826087E-01  3.47826087E-01  0.00000000E+00
                       3.26086957E-01  3.26086957E-01  0.00000000E+00
                       3.04347826E-01  3.04347826E-01  0.00000000E+00
                       2.82608696E-01  2.82608696E-01  0.00000000E+00
                       2.60869565E-01  2.60869565E-01  0.00000000E+00
                       2.39130435E-01  2.39130435E-01  0.00000000E+00
                       2.17391304E-01  2.17391304E-01  0.00000000E+00
                       1.95652174E-01  1.95652174E-01  0.00000000E+00
                       1.73913043E-01  1.73913043E-01  0.00000000E+00
                       1.52173913E-01  1.52173913E-01  0.00000000E+00
                       1.30434783E-01  1.30434783E-01  0.00000000E+00
                       1.08695652E-01  1.08695652E-01  0.00000000E+00
                       8.69565217E-02  8.69565217E-02  0.00000000E+00
                       6.52173913E-02  6.52173913E-02  0.00000000E+00
                       4.34782609E-02  4.34782609E-02  0.00000000E+00
                       2.17391304E-02  2.17391304E-02  0.00000000E+00
                       0.00000000E+00  0.00000000E+00  0.00000000E+00
                       2.50000000E-02  0.00000000E+00  0.00000000E+00
                       5.00000000E-02  0.00000000E+00  0.00000000E+00
                       7.50000000E-02  0.00000000E+00  0.00000000E+00
                       1.00000000E-01  0.00000000E+00  0.00000000E+00
                       1.25000000E-01  0.00000000E+00  0.00000000E+00
                       1.50000000E-01  0.00000000E+00  0.00000000E+00
                       1.75000000E-01  0.00000000E+00  0.00000000E+00
                       2.00000000E-01  0.00000000E+00  0.00000000E+00
                       2.25000000E-01  0.00000000E+00  0.00000000E+00
                       2.50000000E-01  0.00000000E+00  0.00000000E+00
                       2.75000000E-01  0.00000000E+00  0.00000000E+00
                       3.00000000E-01  0.00000000E+00  0.00000000E+00
                       3.25000000E-01  0.00000000E+00  0.00000000E+00
                       3.50000000E-01  0.00000000E+00  0.00000000E+00
                       3.75000000E-01  0.00000000E+00  0.00000000E+00
                       4.00000000E-01  0.00000000E+00  0.00000000E+00
                       4.25000000E-01  0.00000000E+00  0.00000000E+00
                       4.50000000E-01  0.00000000E+00  0.00000000E+00
                       4.75000000E-01  0.00000000E+00  0.00000000E+00
                       5.00000000E-01  0.00000000E+00  0.00000000E+00
           kptopt1          1
           kptopt2         -2
         kptrlatt        4   -4    4     -4    4    4     -4   -4    4
          kptrlen1     4.10520000E+01
          kptrlen2     3.00000000E+01
P           mkmem1          3
P           mkmem2         11
            natom           2
            nband1          5
            nband2          8
           nbdbuf1          0
           nbdbuf2          2
           ndtset           2
            ngfft          27      27      27
             nkpt1         10
             nkpt2         44
            nstep          50
             nsym          48
           ntypat           1
              occ      2.000000  2.000000  2.000000  2.000000  0.000000
            rprim      0.0000000000E+00  5.0000000000E-01  5.0000000000E-01
                       5.0000000000E-01  0.0000000000E+00  5.0000000000E-01
                       5.0000000000E-01  5.0000000000E-01  0.0000000000E+00
           shiftk      5.00000000E-01  5.00000000E-01  5.00000000E-01
          spgroup         227
           symrel      1  0  0   0  1  0   0  0  1      -1  0  0   0 -1  0   0  0 -1
                       0 -1  1   0 -1  0   1 -1  0       0  1 -1   0  1  0  -1  1  0
                      -1  0  0  -1  0  1  -1  1  0       1  0  0   1  0 -1   1 -1  0
                       0  1 -1   1  0 -1   0  0 -1       0 -1  1  -1  0  1   0  0  1
                      -1  0  0  -1  1  0  -1  0  1       1  0  0   1 -1  0   1  0 -1
                       0 -1  1   1 -1  0   0 -1  0       0  1 -1  -1  1  0   0  1  0
                       1  0  0   0  0  1   0  1  0      -1  0  0   0  0 -1   0 -1  0
                       0  1 -1   0  0 -1   1  0 -1       0 -1  1   0  0  1  -1  0  1
                      -1  0  1  -1  1  0  -1  0  0       1  0 -1   1 -1  0   1  0  0
                       0 -1  0   1 -1  0   0 -1  1       0  1  0  -1  1  0   0  1 -1
                       1  0 -1   0  0 -1   0  1 -1      -1  0  1   0  0  1   0 -1  1
                       0  1  0   0  0  1   1  0  0       0 -1  0   0  0 -1  -1  0  0
                       1  0 -1   0  1 -1   0  0 -1      -1  0  1   0 -1  1   0  0  1
                       0 -1  0   0 -1  1   1 -1  0       0  1  0   0  1 -1  -1  1  0
                      -1  0  1  -1  0  0  -1  1  0       1  0 -1   1  0  0   1 -1  0
                       0  1  0   1  0  0   0  0  1       0 -1  0  -1  0  0   0  0 -1
                       0  0 -1   0  1 -1   1  0 -1       0  0  1   0 -1  1  -1  0  1
                       1 -1  0   0 -1  1   0 -1  0      -1  1  0   0  1 -1   0  1  0
                       0  0  1   1  0  0   0  1  0       0  0 -1  -1  0  0   0 -1  0
                      -1  1  0  -1  0  0  -1  0  1       1 -1  0   1  0  0   1  0 -1
                       0  0  1   0  1  0   1  0  0       0  0 -1   0 -1  0  -1  0  0
                       1 -1  0   0 -1  0   0 -1  1      -1  1  0   0  1  0   0  1 -1
                       0  0 -1   1  0 -1   0  1 -1       0  0  1  -1  0  1   0 -1  1
                      -1  1  0  -1  0  1  -1  0  0       1 -1  0   1  0 -1   1  0  0
            tnons      0.0000000  0.0000000  0.0000000     0.2500000  0.2500000  0.2500000
                       0.0000000  0.0000000  0.0000000     0.2500000  0.2500000  0.2500000
                       0.0000000  0.0000000  0.0000000     0.2500000  0.2500000  0.2500000
                       0.0000000  0.0000000  0.0000000     0.2500000  0.2500000  0.2500000
                       0.0000000  0.0000000  0.0000000     0.2500000  0.2500000  0.2500000
                       0.0000000  0.0000000  0.0000000     0.2500000  0.2500000  0.2500000
                       0.0000000  0.0000000  0.0000000     0.2500000  0.2500000  0.2500000
                       0.0000000  0.0000000  0.0000000     0.2500000  0.2500000  0.2500000
                       0.0000000  0.0000000  0.0000000     0.2500000  0.2500000  0.2500000
                       0.0000000  0.0000000  0.0000000     0.2500000  0.2500000  0.2500000
                       0.0000000  0.0000000  0.0000000     0.2500000  0.2500000  0.2500000
                       0.0000000  0.0000000  0.0000000     0.2500000  0.2500000  0.2500000
                       0.0000000  0.0000000  0.0000000     0.2500000  0.2500000  0.2500000
                       0.0000000  0.0000000  0.0000000     0.2500000  0.2500000  0.2500000
                       0.0000000  0.0000000  0.0000000     0.2500000  0.2500000  0.2500000
                       0.0000000  0.0000000  0.0000000     0.2500000  0.2500000  0.2500000
                       0.0000000  0.0000000  0.0000000     0.2500000  0.2500000  0.2500000
                       0.0000000  0.0000000  0.0000000     0.2500000  0.2500000  0.2500000
                       0.0000000  0.0000000  0.0000000     0.2500000  0.2500000  0.2500000
                       0.0000000  0.0000000  0.0000000     0.2500000  0.2500000  0.2500000
                       0.0000000  0.0000000  0.0000000     0.2500000  0.2500000  0.2500000
                       0.0000000  0.0000000  0.0000000     0.2500000  0.2500000  0.2500000
                       0.0000000  0.0000000  0.0000000     0.2500000  0.2500000  0.2500000
                       0.0000000  0.0000000  0.0000000     0.2500000  0.2500000  0.2500000
           tolvrs1     1.00000000E-14
           tolvrs2     0.00000000E+00
           tolwfr1     0.00000000E+00
           tolwfr2     1.00000000E-18
            typat      1  1
              wtk1       0.09375    0.09375    0.09375    0.18750    0.09375    0.09375
                         0.09375    0.18750    0.03125    0.03125
              wtk2       1.00000    1.00000    1.00000    1.00000    1.00000    1.00000
                         1.00000    1.00000    1.00000    1.00000    1.00000    1.00000
                         1.00000    1.00000    1.00000    1.00000    1.00000    1.00000
                         1.00000    1.00000    1.00000    1.00000    1.00000    1.00000
                         1.00000    1.00000    1.00000    1.00000    1.00000    1.00000
                         1.00000    1.00000    1.00000    1.00000    1.00000    1.00000
                         1.00000    1.00000    1.00000    1.00000    1.00000    1.00000
                         1.00000    1.00000
           xangst      0.0000000000E+00  0.0000000000E+00  0.0000000000E+00
                       1.3577364229E+00  1.3577364229E+00  1.3577364229E+00
            xcart      0.0000000000E+00  0.0000000000E+00  0.0000000000E+00
                       2.5657500000E+00  2.5657500000E+00  2.5657500000E+00
             xred      0.0000000000E+00  0.0000000000E+00  0.0000000000E+00
                       2.5000000000E-01  2.5000000000E-01  2.5000000000E-01
            znucl       14.00000

================================================================================

 chkinp: Checking input parameters for consistency, jdtset=   1.

 chkinp: Checking input parameters for consistency, jdtset=   2.

================================================================================
== DATASET  1 ==================================================================
-   nproc =    4

 Exchange-correlation functional for the present dataset will be:
  LDA: new Teter (4/93) with spin-polarized option - ixc=1
 Citation for XC functional:
  S. Goedecker, M. Teter, J. Huetter, PRB 54, 1703 (1996)

 Real(R)+Recip(G) space primitive vectors, cartesian coordinates (Bohr,Bohr^-1):
 R(1)=  0.0000000  5.1315000  5.1315000  G(1)= -0.0974374  0.0974374  0.0974374
 R(2)=  5.1315000  0.0000000  5.1315000  G(2)=  0.0974374 -0.0974374  0.0974374
 R(3)=  5.1315000  5.1315000  0.0000000  G(3)=  0.0974374  0.0974374 -0.0974374
 Unit cell volume ucvol=  2.7024832E+02 bohr^3
 Angles (23,13,12)=  6.00000000E+01  6.00000000E+01  6.00000000E+01 degrees

 getcut: wavevector=  0.0000  0.0000  0.0000  ngfft=  27  27  27
         ecut(hartree)=     15.000   => boxcut(ratio)=   2.05800

--- Pseudopotential description ------------------------------------------------
- pspini: atom type   1  psp file is /Users/Antonius/Work/kTools/abitools/Examples/Data/Pseudos/14-Si.pspnc
- pspatm: opening atomic psp file    /Users/Antonius/Work/kTools/abitools/Examples/Data/Pseudos/14-Si.pspnc
-  Troullier-Martins psp for element  Si        Thu Oct 27 17:31:21 EDT 1994
- 14.00000   4.00000    940714                znucl, zion, pspdat
    1    1    2    2      2001   0.00000      pspcod,pspxc,lmax,lloc,mmax,r2well
    0   5.907  14.692    1   2.0872718        l,e99.0,e99.9,nproj,rcpsp
   0.00000000   0.00000000   0.00000000   0.00000000     rms, ekb1, ekb2, epsatm
    1   2.617   4.181    1   2.0872718        l,e99.0,e99.9,nproj,rcpsp
   0.00000000   0.00000000   0.00000000   0.00000000     rms, ekb1, ekb2, epsatm
    2   0.000   0.000    0   2.0872718        l,e99.0,e99.9,nproj,rcpsp
   0.00000000   0.00000000   0.00000000   0.00000000     rms, ekb1, ekb2, epsatm
    1.80626423934776    0.22824404341771    1.17378968127746   rchrg,fchrg,qchrg
 pspatm: epsatm=    1.43386982
         --- l  ekb(1:nproj) -->
             0    3.287949
             1    1.849886
 pspatm: atomic psp has been read  and splines computed

   2.29419171E+01                                ecore*ucvol(ha*bohr**3)
--------------------------------------------------------------------------------

P newkpt: treating      5 bands with npw=     757 for ikpt=   1 by node    0
P newkpt: treating      5 bands with npw=     753 for ikpt=   2 by node    0
P newkpt: treating      5 bands with npw=     751 for ikpt=   3 by node    0
P newkpt: treating      5 bands with npw=     747 for ikpt=   4 by node    1
P newkpt: treating      5 bands with npw=     748 for ikpt=   5 by node    1
P newkpt: treating      5 bands with npw=     744 for ikpt=   6 by node    1
P newkpt: treating      5 bands with npw=     747 for ikpt=   7 by node    2
P newkpt: treating      5 bands with npw=     748 for ikpt=   8 by node    2
P newkpt: treating      5 bands with npw=     743 for ikpt=   9 by node    2
P newkpt: treating      5 bands with npw=     763 for ikpt=  10 by node    3

_setup2: Arith. and geom. avg. npw (full set) are     749.250     749.238

================================================================================

     iter   Etot(hartree)      deltaE(h)  residm     vres2
 ETOT  1  -8.8696077247082    -8.870E+00 9.189E-03 1.402E+01
 ETOT  2  -8.8761567653416    -6.549E-03 4.215E-05 3.225E-01
 ETOT  3  -8.8762187386879    -6.197E-05 1.247E-05 6.813E-03
 ETOT  4  -8.8762195990273    -8.603E-07 3.163E-07 2.953E-05
 ETOT  5  -8.8762196041486    -5.121E-09 2.124E-08 2.691E-08
 ETOT  6  -8.8762196041544    -5.741E-12 2.790E-09 1.734E-10
 ETOT  7  -8.8762196041545    -1.013E-13 1.938E-10 9.260E-13
 ETOT  8  -8.8762196041545    -5.151E-14 2.748E-11 9.413E-16

 At SCF step    8       vres2   =  9.41E-16 < tolvrs=  1.00E-14 =>converged.

 Cartesian components of stress tensor (hartree/bohr^3)
  sigma(1 1)=  5.74137590E-05  sigma(3 2)=  0.00000000E+00
  sigma(2 2)=  5.74137590E-05  sigma(3 1)=  0.00000000E+00
  sigma(3 3)=  5.74137590E-05  sigma(2 1)=  0.00000000E+00

================================================================================

 ----iterations are completed or convergence reached----

 Mean square residual over all n,k,spin=   6.4626E-13; max=  2.7482E-11
  -0.1250 -0.2500  0.0000    1  3.09913E-15 kpt; spin; max resid(k); each band:
  1.79E-18 5.87E-19 8.62E-20 6.35E-19 3.10E-15
  -0.1250  0.5000  0.0000    1  4.14102E-15 kpt; spin; max resid(k); each band:
  5.17E-19 2.88E-18 9.44E-19 4.37E-20 4.14E-15
  -0.2500 -0.3750  0.0000    1  1.03042E-16 kpt; spin; max resid(k); each band:
  1.96E-18 4.25E-19 6.04E-19 6.08E-20 1.03E-16
  -0.1250 -0.3750  0.1250    1  2.74818E-11 kpt; spin; max resid(k); each band:
  1.36E-18 1.15E-18 1.03E-18 4.15E-19 2.75E-11
  -0.1250  0.2500  0.0000    1  3.06625E-13 kpt; spin; max resid(k); each band:
  9.70E-19 2.16E-18 7.57E-19 3.15E-20 3.07E-13
  -0.2500  0.3750  0.0000    1  2.30599E-18 kpt; spin; max resid(k); each band:
  2.90E-19 2.31E-18 8.52E-19 4.56E-20 1.98E-18
  -0.3750  0.5000  0.0000    1  2.84276E-15 kpt; spin; max resid(k); each band:
  1.39E-18 6.80E-19 2.80E-19 5.08E-20 2.84E-15
  -0.2500  0.5000  0.1250    1  6.32977E-18 kpt; spin; max resid(k); each band:
  6.50E-19 1.03E-18 3.63E-19 8.19E-19 6.33E-18
  -0.1250  0.0000  0.0000    1  4.51418E-12 kpt; spin; max resid(k); each band:
  8.96E-19 8.41E-19 1.13E-19 1.19E-19 4.51E-12
  -0.3750  0.0000  0.0000    1  5.49886E-18 kpt; spin; max resid(k); each band:
  1.24E-18 2.96E-18 3.59E-20 3.59E-20 5.50E-18
 reduced coordinates (array xred) for    2 atoms
       0.000000000000      0.000000000000      0.000000000000
       0.250000000000      0.250000000000      0.250000000000
 rms dE/dt=  0.0000E+00; max dE/dt=  0.0000E+00; dE/dt below (all hartree)
    1       0.000000000000      0.000000000000      0.000000000000
    2       0.000000000000      0.000000000000      0.000000000000

 cartesian coordinates (angstrom) at end:
    1      0.00000000000000     0.00000000000000     0.00000000000000
    2      1.35773642293979     1.35773642293979     1.35773642293979

 cartesian forces (hartree/bohr) at end:
    1     -0.00000000000000    -0.00000000000000    -0.00000000000000
    2     -0.00000000000000    -0.00000000000000    -0.00000000000000
 frms,max,avg= 0.0000000E+00 0.0000000E+00   0.000E+00  0.000E+00  0.000E+00 h/b

 cartesian forces (eV/Angstrom) at end:
    1     -0.00000000000000    -0.00000000000000    -0.00000000000000
    2     -0.00000000000000    -0.00000000000000    -0.00000000000000
 frms,max,avg= 0.0000000E+00 0.0000000E+00   0.000E+00  0.000E+00  0.000E+00 e/A
 length scales= 10.263000000000 10.263000000000 10.263000000000 bohr
              =  5.430945691759  5.430945691759  5.430945691759 angstroms
 prteigrs : about to open file /Users/Antonius/Work/kTools/abitools/Examples/01-banstructure/Bandstructure/run/out_data/odat_calc_DS1_EIG
 Fermi (or HOMO) energy (hartree) =   0.20103   Average Vxc (hartree)=  -0.35262
 Eigenvalues (hartree) for nkpt=  10  k points:
 kpt#   1, nband=  5, wtk=  0.09375, kpt= -0.1250 -0.2500  0.0000 (reduced coord)
  -0.20131   0.09228   0.16305   0.16543   0.28767
 kpt#   2, nband=  5, wtk=  0.09375, kpt= -0.1250  0.5000  0.0000 (reduced coord)
  -0.13938  -0.03739   0.12710   0.15417   0.28806
 kpt#   3, nband=  5, wtk=  0.09375, kpt= -0.2500 -0.3750  0.0000 (reduced coord)
  -0.16260   0.02941   0.11280   0.13031   0.25785
 kpt#   4, nband=  5, wtk=  0.18750, kpt= -0.1250 -0.3750  0.1250 (reduced coord)
  -0.14687  -0.00376   0.08863   0.14039   0.31403
 kpt#   5, nband=  5, wtk=  0.09375, kpt= -0.1250  0.2500  0.0000 (reduced coord)
  -0.18255   0.04079   0.12598   0.18324   0.30694
 kpt#   6, nband=  5, wtk=  0.09375, kpt= -0.2500  0.3750  0.0000 (reduced coord)
  -0.12084  -0.03314   0.06376   0.14221   0.27568
 kpt#   7, nband=  5, wtk=  0.09375, kpt= -0.3750  0.5000  0.0000 (reduced coord)
  -0.10740  -0.03982   0.08458   0.11285   0.24069
 kpt#   8, nband=  5, wtk=  0.18750, kpt= -0.2500  0.5000  0.1250 (reduced coord)
  -0.10081  -0.04359   0.06126   0.10219   0.29601
 kpt#   9, nband=  5, wtk=  0.03125, kpt= -0.1250  0.0000  0.0000 (reduced coord)
  -0.22111   0.15210   0.20103   0.20103   0.29920
 kpt#  10, nband=  5, wtk=  0.03125, kpt= -0.3750  0.0000  0.0000 (reduced coord)
  -0.16618  -0.00791   0.17171   0.17171   0.26717
 Total charge density [el/Bohr^3]
,     Maximum=    8.5017E-02  at reduced coord.    0.1481    0.1481    0.5556
,Next maximum=    8.5017E-02  at reduced coord.    0.1481    0.5556    0.1481
,     Minimum=    3.4635E-03  at reduced coord.    0.7407    0.7407    0.7407
,Next minimum=    3.4635E-03  at reduced coord.    0.7778    0.7407    0.7407
,  Integrated=    8.0000E+00

--------------------------------------------------------------------------------
 Components of total free energy (in Hartree) :

    Kinetic energy  =  3.00803981462503E+00
    Hartree energy  =  5.45122703586683E-01
    XC energy       = -3.53147505582596E+00
    Ewald energy    = -8.39800922793231E+00
    PspCore energy  =  8.48919894704955E-02
    Loc. psp. energy= -2.46612985967765E+00
    NL   psp  energy=  1.88134003159918E+00
    >>>>>>>>> Etotal= -8.87621960415454E+00

 Other information on the energy :
    Total energy(eV)= -2.41534218874306E+02 ; Band energy (Ha)=   1.9984968474E-01
--------------------------------------------------------------------------------

 Cartesian components of stress tensor (hartree/bohr^3)
  sigma(1 1)=  5.74137590E-05  sigma(3 2)=  0.00000000E+00
  sigma(2 2)=  5.74137590E-05  sigma(3 1)=  0.00000000E+00
  sigma(3 3)=  5.74137590E-05  sigma(2 1)=  0.00000000E+00

-Cartesian components of stress tensor (GPa)         [Pressure= -1.6892E+00 GPa]
- sigma(1 1)=  1.68917082E+00  sigma(3 2)=  0.00000000E+00
- sigma(2 2)=  1.68917082E+00  sigma(3 1)=  0.00000000E+00
- sigma(3 3)=  1.68917082E+00  sigma(2 1)=  0.00000000E+00

================================================================================
== DATASET  2 ==================================================================
-   nproc =    4

 Exchange-correlation functional for the present dataset will be:
  LDA: new Teter (4/93) with spin-polarized option - ixc=1
 Citation for XC functional:
  S. Goedecker, M. Teter, J. Huetter, PRB 54, 1703 (1996)

 Real(R)+Recip(G) space primitive vectors, cartesian coordinates (Bohr,Bohr^-1):
 R(1)=  0.0000000  5.1315000  5.1315000  G(1)= -0.0974374  0.0974374  0.0974374
 R(2)=  5.1315000  0.0000000  5.1315000  G(2)=  0.0974374 -0.0974374  0.0974374
 R(3)=  5.1315000  5.1315000  0.0000000  G(3)=  0.0974374  0.0974374 -0.0974374
 Unit cell volume ucvol=  2.7024832E+02 bohr^3
 Angles (23,13,12)=  6.00000000E+01  6.00000000E+01  6.00000000E+01 degrees

 getcut: wavevector=  0.0000  0.0000  0.0000  ngfft=  27  27  27
         ecut(hartree)=     15.000   => boxcut(ratio)=   2.05800
--------------------------------------------------------------------------------

P newkpt: treating      8 bands with npw=     370 for ikpt=   1 by node    0
P newkpt: treating      8 bands with npw=     740 for ikpt=   2 by node    0
P newkpt: treating      8 bands with npw=     745 for ikpt=   3 by node    0
P newkpt: treating      8 bands with npw=     749 for ikpt=   4 by node    0
P newkpt: treating      8 bands with npw=     753 for ikpt=   5 by node    0
P newkpt: treating      8 bands with npw=     753 for ikpt=   6 by node    0
P newkpt: treating      8 bands with npw=     753 for ikpt=   7 by node    0
P newkpt: treating      8 bands with npw=     749 for ikpt=   8 by node    0
P newkpt: treating      8 bands with npw=     749 for ikpt=   9 by node    0
P newkpt: treating      8 bands with npw=     745 for ikpt=  10 by node    0
P newkpt: treating      8 bands with npw=     745 for ikpt=  11 by node    0
P newkpt: treating      8 bands with npw=     729 for ikpt=  12 by node    1
P newkpt: treating      8 bands with npw=     745 for ikpt=  13 by node    1
P newkpt: treating      8 bands with npw=     745 for ikpt=  14 by node    1
P newkpt: treating      8 bands with npw=     745 for ikpt=  15 by node    1
P newkpt: treating      8 bands with npw=     753 for ikpt=  16 by node    1
P newkpt: treating      8 bands with npw=     753 for ikpt=  17 by node    1
P newkpt: treating      8 bands with npw=     753 for ikpt=  18 by node    1
P newkpt: treating      8 bands with npw=     745 for ikpt=  19 by node    1
P newkpt: treating      8 bands with npw=     745 for ikpt=  20 by node    1
P newkpt: treating      8 bands with npw=     741 for ikpt=  21 by node    1
P newkpt: treating      8 bands with npw=     741 for ikpt=  22 by node    1
P newkpt: treating      8 bands with npw=     741 for ikpt=  23 by node    2
P newkpt: treating      8 bands with npw=     375 for ikpt=  24 by node    2
P newkpt: treating      8 bands with npw=     737 for ikpt=  25 by node    2
P newkpt: treating      8 bands with npw=     737 for ikpt=  26 by node    2
P newkpt: treating      8 bands with npw=     737 for ikpt=  27 by node    2
P newkpt: treating      8 bands with npw=     743 for ikpt=  28 by node    2
P newkpt: treating      8 bands with npw=     743 for ikpt=  29 by node    2
P newkpt: treating      8 bands with npw=     749 for ikpt=  30 by node    2
P newkpt: treating      8 bands with npw=     760 for ikpt=  31 by node    2
P newkpt: treating      8 bands with npw=     751 for ikpt=  32 by node    2
P newkpt: treating      8 bands with npw=     754 for ikpt=  33 by node    2
P newkpt: treating      8 bands with npw=     754 for ikpt=  34 by node    3
P newkpt: treating      8 bands with npw=     757 for ikpt=  35 by node    3
P newkpt: treating      8 bands with npw=     757 for ikpt=  36 by node    3
P newkpt: treating      8 bands with npw=     751 for ikpt=  37 by node    3
P newkpt: treating      8 bands with npw=     757 for ikpt=  38 by node    3
P newkpt: treating      8 bands with npw=     763 for ikpt=  39 by node    3
P newkpt: treating      8 bands with npw=     763 for ikpt=  40 by node    3
P newkpt: treating      8 bands with npw=     760 for ikpt=  41 by node    3
P newkpt: treating      8 bands with npw=     763 for ikpt=  42 by node    3
P newkpt: treating      8 bands with npw=     757 for ikpt=  43 by node    3
P newkpt: treating      8 bands with npw=     377 for ikpt=  44 by node    3


================================================================================
 prteigrs : about to open file /Users/Antonius/Work/kTools/abitools/Examples/01-banstructure/Bandstructure/run/out_data/odat_calc_DS2_EIG
 Non-SCF case, kpt    1 (  0.50000  0.50000  0.00000), residuals and eigenvalues=
  1.86E-19  9.45E-19  3.50E-19  1.75E-19  1.12E-19  2.13E-19  4.98E-10  4.61E-06
 -7.6082E-02 -7.6082E-02  1.0660E-01  1.0660E-01  2.3381E-01  2.3381E-01
  5.7594E-01  5.7594E-01
  prteigrs : nnsclo,ikpt=   50    1 max resid (incl. the buffer)=  4.60524E-06
 Non-SCF case, kpt    2 (  0.47826  0.47826  0.00000), residuals and eigenvalues=
  1.14E-19  1.51E-19  1.71E-19  3.74E-19  5.29E-20  8.59E-19  1.08E-09  1.22E-08
 -8.8265E-02 -6.3540E-02  1.0688E-01  1.0688E-01  2.3138E-01  2.3707E-01
  5.7013E-01  5.7013E-01
  prteigrs : nnsclo,ikpt=   50    2 max resid (incl. the buffer)=  1.21840E-08
 Non-SCF case, kpt    3 (  0.45652  0.45652  0.00000), residuals and eigenvalues=
  8.50E-19  2.11E-19  1.30E-19  3.26E-19  3.84E-19  2.90E-19  9.56E-11  1.70E-10
 -1.0006E-01 -5.0669E-02  1.0770E-01  1.0770E-01  2.2976E-01  2.4117E-01
  5.5790E-01  5.5790E-01
  prteigrs : nnsclo,ikpt=   50    3 max resid (incl. the buffer)=  1.70177E-10
 Non-SCF case, kpt    4 (  0.43478  0.43478  0.00000), residuals and eigenvalues=
  1.22E-19  6.72E-19  2.81E-19  9.69E-19  5.05E-19  8.21E-20  2.17E-12  1.12E-11
 -1.1144E-01 -3.7502E-02  1.0907E-01  1.0907E-01  2.2893E-01  2.4614E-01
  5.4383E-01  5.4383E-01
  prteigrs : nnsclo,ikpt=   50    4 max resid (incl. the buffer)=  1.11860E-11
 Non-SCF case, kpt    5 (  0.41304  0.41304  0.00000), residuals and eigenvalues=
  2.47E-19  3.69E-19  8.58E-19  4.14E-19  4.20E-19  1.56E-19  1.14E-12  8.82E-12
 -1.2239E-01 -2.4074E-02  1.1099E-01  1.1099E-01  2.2885E-01  2.5199E-01
  5.2921E-01  5.2921E-01
  prteigrs : nnsclo,ikpt=   50    5 max resid (incl. the buffer)=  8.81585E-12
 Non-SCF case, kpt    6 (  0.39130  0.39130  0.00000), residuals and eigenvalues=
  2.76E-19  6.76E-19  1.84E-19  6.57E-19  8.20E-19  2.56E-19  2.27E-13  2.26E-12
 -1.3288E-01 -1.0416E-02  1.1345E-01  1.1345E-01  2.2951E-01  2.5872E-01
  5.1445E-01  5.1445E-01
  prteigrs : nnsclo,ikpt=   50    6 max resid (incl. the buffer)=  2.26176E-12
 Non-SCF case, kpt    7 (  0.36957  0.36957  0.00000), residuals and eigenvalues=
  3.80E-19  9.35E-19  2.85E-19  1.31E-19  1.71E-19  2.45E-19  4.44E-13  5.12E-13
 -1.4289E-01  3.4400E-03  1.1644E-01  1.1644E-01  2.3088E-01  2.6635E-01
  4.9971E-01  4.9971E-01
  prteigrs : nnsclo,ikpt=   50    7 max resid (incl. the buffer)=  5.12012E-13
 Non-SCF case, kpt    8 (  0.34783  0.34783  0.00000), residuals and eigenvalues=
  8.46E-19  1.07E-19  6.61E-19  6.29E-19  1.74E-19  6.97E-19  1.87E-13  1.97E-13
 -1.5241E-01  1.7458E-02  1.1996E-01  1.1996E-01  2.3294E-01  2.7486E-01
  4.8505E-01  4.8505E-01
  prteigrs : nnsclo,ikpt=   50    8 max resid (incl. the buffer)=  1.96787E-13
 Non-SCF case, kpt    9 (  0.32609  0.32609  0.00000), residuals and eigenvalues=
  1.73E-19  9.13E-19  7.71E-19  8.68E-19  1.97E-19  1.85E-19  7.88E-14  1.32E-13
 -1.6142E-01  3.1595E-02  1.2399E-01  1.2399E-01  2.3565E-01  2.8423E-01
  4.7051E-01  4.7051E-01
  prteigrs : nnsclo,ikpt=   50    9 max resid (incl. the buffer)=  1.32073E-13
 Non-SCF case, kpt   10 (  0.30435  0.30435  0.00000), residuals and eigenvalues=
  4.32E-19  1.68E-19  5.16E-19  2.53E-19  3.49E-19  5.55E-19  2.17E-13  3.01E-12
 -1.6991E-01  4.5814E-02  1.2854E-01  1.2854E-01  2.3897E-01  2.9441E-01
  4.5609E-01  4.5609E-01
  prteigrs : nnsclo,ikpt=   50   10 max resid (incl. the buffer)=  3.00774E-12
 Non-SCF case, kpt   11 (  0.28261  0.28261  0.00000), residuals and eigenvalues=
  7.06E-19  1.73E-19  5.77E-19  2.76E-19  4.63E-19  2.69E-19  2.05E-13  2.88E-12
 -1.7786E-01  6.0089E-02  1.3357E-01  1.3357E-01  2.4288E-01  3.0535E-01
  4.4183E-01  4.4183E-01
  prteigrs : nnsclo,ikpt=   50   11 max resid (incl. the buffer)=  2.88469E-12
 Non-SCF case, kpt   12 (  0.26087  0.26087  0.00000), residuals and eigenvalues=
  3.23E-19  3.66E-19  3.04E-19  2.67E-19  3.43E-19  3.18E-19  3.07E-13  6.21E-12
 -1.8527E-01  7.4386E-02  1.3908E-01  1.3908E-01  2.4734E-01  3.1689E-01
  4.2774E-01  4.2774E-01
  prteigrs : nnsclo,ikpt=   50   12 max resid (incl. the buffer)=  6.20908E-12
 Non-SCF case, kpt   13 (  0.23913  0.23913  0.00000), residuals and eigenvalues=
  7.57E-19  8.87E-19  8.57E-19  3.10E-19  6.27E-19  3.10E-19  1.05E-14  1.35E-12
 -1.9211E-01  8.8672E-02  1.4504E-01  1.4504E-01  2.5228E-01  3.2884E-01
  4.1384E-01  4.1384E-01
  prteigrs : nnsclo,ikpt=   50   13 max resid (incl. the buffer)=  1.35338E-12
 Non-SCF case, kpt   14 (  0.21739  0.21739  0.00000), residuals and eigenvalues=
  9.97E-19  8.46E-19  7.09E-19  3.15E-19  7.50E-19  4.31E-19  8.81E-16  3.83E-15
 -1.9839E-01  1.0291E-01  1.5141E-01  1.5141E-01  2.5764E-01  3.4080E-01
  4.0016E-01  4.0016E-01
  prteigrs : nnsclo,ikpt=   50   14 max resid (incl. the buffer)=  3.82608E-15
 Non-SCF case, kpt   15 (  0.19565  0.19565  0.00000), residuals and eigenvalues=
  1.29E-19  8.41E-19  6.02E-19  3.27E-19  4.22E-19  5.41E-19  8.37E-18  3.65E-17
 -2.0410E-01  1.1706E-01  1.5816E-01  1.5816E-01  2.6336E-01  3.5205E-01
  3.8676E-01  3.8676E-01
  prteigrs : nnsclo,ikpt=   50   15 max resid (incl. the buffer)=  3.64835E-17
 Non-SCF case, kpt   16 (  0.17391  0.17391  0.00000), residuals and eigenvalues=
  1.71E-19  3.58E-19  9.03E-19  1.60E-19  4.02E-19  3.01E-19  2.43E-17  5.13E-17
 -2.0922E-01  1.3107E-01  1.6524E-01  1.6524E-01  2.6932E-01  3.6124E-01
  3.7370E-01  3.7370E-01
  prteigrs : nnsclo,ikpt=   50   16 max resid (incl. the buffer)=  5.13050E-17
 Non-SCF case, kpt   17 (  0.15217  0.15217  0.00000), residuals and eigenvalues=
  2.62E-19  2.83E-19  6.15E-19  8.54E-19  4.76E-19  4.64E-19  3.39E-19  8.22E-19
 -2.1375E-01  1.4487E-01  1.7255E-01  1.7255E-01  2.7542E-01  3.6105E-01
  3.6105E-01  3.6623E-01
 Non-SCF case, kpt   18 (  0.13043  0.13043  0.00000), residuals and eigenvalues=
  3.60E-19  2.87E-19  2.61E-19  7.69E-19  3.50E-19  3.17E-19  4.38E-19  5.82E-19
 -2.1769E-01  1.5833E-01  1.8001E-01  1.8001E-01  2.8149E-01  3.4895E-01
  3.4895E-01  3.6522E-01
 Non-SCF case, kpt   19 (  0.10870  0.10870  0.00000), residuals and eigenvalues=
  4.14E-19  6.28E-19  1.90E-19  2.72E-19  3.33E-19  9.27E-19  5.77E-19  1.81E-17
 -2.2102E-01  1.7129E-01  1.8745E-01  1.8745E-01  2.8735E-01  3.3755E-01
  3.3755E-01  3.5897E-01
  prteigrs : nnsclo,ikpt=   50   19 max resid (incl. the buffer)=  1.80713E-17
 Non-SCF case, kpt   20 (  0.08696  0.08696  0.00000), residuals and eigenvalues=
  9.13E-19  8.11E-19  6.71E-19  7.02E-19  3.39E-19  9.87E-19  6.62E-19  2.64E-18
 -2.2376E-01  1.8346E-01  1.9463E-01  1.9463E-01  2.9275E-01  3.2711E-01
  3.2711E-01  3.4999E-01
  prteigrs : nnsclo,ikpt=   50   20 max resid (incl. the buffer)=  2.63932E-18
 Non-SCF case, kpt   21 (  0.06522  0.06522  0.00000), residuals and eigenvalues=
  2.70E-19  3.30E-19  4.18E-19  6.52E-19  2.14E-19  2.76E-19  5.23E-19  1.06E-18
 -2.2589E-01  1.9440E-01  2.0121E-01  2.0121E-01  2.9742E-01  3.1798E-01
  3.1798E-01  3.4048E-01
  prteigrs : nnsclo,ikpt=   50   21 max resid (incl. the buffer)=  1.05691E-18
 Non-SCF case, kpt   22 (  0.04348  0.04348  0.00000), residuals and eigenvalues=
  6.30E-19  2.48E-19  3.12E-19  3.15E-19  2.30E-19  1.99E-19  6.67E-19  2.77E-19
 -2.2741E-01  2.0342E-01  2.0668E-01  2.0668E-01  3.0106E-01  3.1069E-01
  3.1069E-01  3.3206E-01
 Non-SCF case, kpt   23 (  0.02174  0.02174  0.00000), residuals and eigenvalues=
  4.77E-19  1.79E-19  3.25E-19  2.82E-19  1.75E-19  4.04E-19  3.59E-19  7.02E-19
 -2.2832E-01  2.0953E-01  2.1039E-01  2.1039E-01  3.0339E-01  3.0588E-01
  3.0588E-01  3.2618E-01
 Non-SCF case, kpt   24 (  0.00000  0.00000  0.00000), residuals and eigenvalues=
  3.33E-19  1.57E-19  9.11E-19  7.06E-19  8.42E-19  4.76E-19  6.75E-19  8.35E-19
 -2.2862E-01  2.1172E-01  2.1172E-01  2.1172E-01  3.0419E-01  3.0419E-01
  3.0419E-01  3.2404E-01
 Non-SCF case, kpt   25 (  0.02500  0.00000  0.00000), residuals and eigenvalues=
  3.63E-19  5.39E-19  3.17E-19  1.52E-19  6.83E-19  5.34E-19  8.20E-19  9.52E-19
 -2.2832E-01  2.0802E-01  2.1119E-01  2.1119E-01  3.0495E-01  3.0495E-01
  3.0501E-01  3.2632E-01
 Non-SCF case, kpt   26 (  0.05000  0.00000  0.00000), residuals and eigenvalues=
  4.68E-19  4.89E-19  3.15E-19  7.57E-19  2.47E-19  7.92E-19  8.52E-19  2.19E-19
 -2.2742E-01  1.9819E-01  2.0967E-01  2.0967E-01  3.0567E-01  3.0717E-01
  3.0717E-01  3.3374E-01
 Non-SCF case, kpt   27 (  0.07500  0.00000  0.00000), residuals and eigenvalues=
  7.71E-19  8.90E-19  2.61E-19  3.92E-19  6.54E-19  1.79E-19  1.19E-19  1.98E-18
 -2.2591E-01  1.8456E-01  2.0732E-01  2.0732E-01  3.0466E-01  3.1060E-01
  3.1060E-01  3.4563E-01
  prteigrs : nnsclo,ikpt=   50   27 max resid (incl. the buffer)=  1.97930E-18
 Non-SCF case, kpt   28 (  0.10000  0.00000  0.00000), residuals and eigenvalues=
  2.82E-19  7.82E-19  2.07E-19  4.43E-19  3.25E-19  1.66E-19  4.62E-19  9.12E-19
 -2.2381E-01  1.6886E-01  2.0437E-01  2.0437E-01  3.0232E-01  3.1493E-01
  3.1493E-01  3.6010E-01
 Non-SCF case, kpt   29 (  0.12500  0.00000  0.00000), residuals and eigenvalues=
  3.20E-19  1.58E-19  9.29E-19  1.85E-19  4.74E-19  4.06E-19  5.77E-19  2.08E-18
 -2.2111E-01  1.5210E-01  2.0103E-01  2.0103E-01  2.9920E-01  3.1978E-01
  3.1978E-01  3.7580E-01
  prteigrs : nnsclo,ikpt=   50   29 max resid (incl. the buffer)=  2.07531E-18
 Non-SCF case, kpt   30 (  0.15000  0.00000  0.00000), residuals and eigenvalues=
  2.73E-19  5.76E-19  5.57E-19  4.42E-19  3.11E-19  8.06E-19  1.61E-19  2.19E-14
 -2.1783E-01  1.3486E-01  1.9748E-01  1.9748E-01  2.9565E-01  3.2476E-01
  3.2476E-01  3.9202E-01
  prteigrs : nnsclo,ikpt=   50   30 max resid (incl. the buffer)=  2.18934E-14
 Non-SCF case, kpt   31 (  0.17500  0.00000  0.00000), residuals and eigenvalues=
  1.91E-19  2.46E-19  3.73E-19  2.76E-19  2.74E-19  9.90E-20  6.07E-19  8.44E-13
 -2.1398E-01  1.1748E-01  1.9388E-01  1.9388E-01  2.9189E-01  3.2947E-01
  3.2947E-01  4.0838E-01
  prteigrs : nnsclo,ikpt=   50   31 max resid (incl. the buffer)=  8.44057E-13
 Non-SCF case, kpt   32 (  0.20000  0.00000  0.00000), residuals and eigenvalues=
  4.24E-19  4.25E-19  3.57E-19  6.33E-19  1.15E-19  5.33E-19  2.86E-19  1.36E-10
 -2.0957E-01  1.0017E-01  1.9033E-01  1.9033E-01  2.8809E-01  3.3355E-01
  3.3355E-01  4.2466E-01
  prteigrs : nnsclo,ikpt=   50   32 max resid (incl. the buffer)=  1.36023E-10
 Non-SCF case, kpt   33 (  0.22500  0.00000  0.00000), residuals and eigenvalues=
  7.01E-19  2.02E-19  1.40E-19  6.30E-19  3.40E-19  7.84E-19  4.57E-19  5.69E-11
 -2.0462E-01  8.3106E-02  1.8692E-01  1.8692E-01  2.8436E-01  3.3671E-01
  3.3671E-01  4.4069E-01
  prteigrs : nnsclo,ikpt=   50   33 max resid (incl. the buffer)=  5.68606E-11
 Non-SCF case, kpt   34 (  0.25000  0.00000  0.00000), residuals and eigenvalues=
  2.97E-19  1.46E-19  3.59E-19  9.53E-19  2.22E-19  3.38E-19  6.21E-19  2.97E-06
 -1.9916E-01  6.6398E-02  1.8370E-01  1.8370E-01  2.8079E-01  3.3878E-01
  3.3878E-01  4.5625E-01
  prteigrs : nnsclo,ikpt=   50   34 max resid (incl. the buffer)=  2.96999E-06
 Non-SCF case, kpt   35 (  0.27500  0.00000  0.00000), residuals and eigenvalues=
  3.67E-19  8.83E-19  5.61E-19  5.58E-19  6.84E-19  9.21E-19  4.61E-19  1.09E-06
 -1.9323E-01  5.0153E-02  1.8073E-01  1.8073E-01  2.7745E-01  3.3977E-01
  3.3977E-01  4.7083E-01
  prteigrs : nnsclo,ikpt=   50   35 max resid (incl. the buffer)=  1.09026E-06
 Non-SCF case, kpt   36 (  0.30000  0.00000  0.00000), residuals and eigenvalues=
  1.97E-19  5.37E-19  2.73E-19  4.63E-19  2.48E-19  4.55E-19  4.86E-19  1.11E-05
 -1.8688E-01  3.4474E-02  1.7802E-01  1.7802E-01  2.7439E-01  3.3983E-01
  3.3983E-01  4.8327E-01
  prteigrs : nnsclo,ikpt=   50   36 max resid (incl. the buffer)=  1.11332E-05
 Non-SCF case, kpt   37 (  0.32500  0.00000  0.00000), residuals and eigenvalues=
  1.05E-19  1.91E-19  9.64E-19  4.04E-19  6.73E-19  9.77E-19  3.66E-19  1.11E-06
 -1.8017E-01  1.9472E-02  1.7561E-01  1.7561E-01  2.7164E-01  3.3919E-01
  3.3919E-01  4.9130E-01
  prteigrs : nnsclo,ikpt=   50   37 max resid (incl. the buffer)=  1.11071E-06
 Non-SCF case, kpt   38 (  0.35000  0.00000  0.00000), residuals and eigenvalues=
  2.82E-19  2.39E-19  1.22E-19  1.88E-19  1.52E-19  3.21E-19  9.80E-19  4.04E-08
 -1.7322E-01  5.2831E-03  1.7350E-01  1.7350E-01  2.6923E-01  3.3811E-01
  3.3811E-01  4.9403E-01
  prteigrs : nnsclo,ikpt=   50   38 max resid (incl. the buffer)=  4.03554E-08
 Non-SCF case, kpt   39 (  0.37500  0.00000  0.00000), residuals and eigenvalues=
  3.57E-19  3.50E-19  2.79E-19  2.15E-19  8.61E-19  9.87E-20  8.92E-19  7.38E-09
 -1.6618E-01 -7.9144E-03  1.7171E-01  1.7171E-01  2.6717E-01  3.3684E-01
  3.3684E-01  4.9356E-01
  prteigrs : nnsclo,ikpt=   50   39 max resid (incl. the buffer)=  7.37853E-09
 Non-SCF case, kpt   40 (  0.40000  0.00000  0.00000), residuals and eigenvalues=
  3.59E-19  6.05E-19  2.15E-19  2.99E-19  1.81E-19  6.61E-19  4.13E-19  1.27E-10
 -1.5928E-01 -1.9868E-02  1.7023E-01  1.7023E-01  2.6547E-01  3.3555E-01
  3.3555E-01  4.9199E-01
  prteigrs : nnsclo,ikpt=   50   40 max resid (incl. the buffer)=  1.26512E-10
 Non-SCF case, kpt   41 (  0.42500  0.00000  0.00000), residuals and eigenvalues=
  7.19E-19  6.18E-19  3.34E-19  2.38E-19  1.62E-19  7.93E-19  8.99E-19  9.67E-12
 -1.5288E-01 -3.0207E-02  1.6909E-01  1.6909E-01  2.6414E-01  3.3441E-01
  3.3441E-01  4.9031E-01
  prteigrs : nnsclo,ikpt=   50   41 max resid (incl. the buffer)=  9.67244E-12
 Non-SCF case, kpt   42 (  0.45000  0.00000  0.00000), residuals and eigenvalues=
  1.10E-19  2.15E-19  2.90E-19  8.57E-19  6.23E-19  1.68E-19  6.03E-19  3.15E-13
 -1.4751E-01 -3.8400E-02  1.6827E-01  1.6827E-01  2.6319E-01  3.3353E-01
  3.3353E-01  4.8893E-01
  prteigrs : nnsclo,ikpt=   50   42 max resid (incl. the buffer)=  3.14566E-13
 Non-SCF case, kpt   43 (  0.47500  0.00000  0.00000), residuals and eigenvalues=
  1.82E-19  6.42E-19  3.53E-19  2.37E-19  2.97E-19  5.12E-19  9.30E-19  1.03E-14
 -1.4384E-01 -4.3766E-02  1.6777E-01  1.6777E-01  2.6262E-01  3.3297E-01
  3.3297E-01  4.8805E-01
  prteigrs : nnsclo,ikpt=   50   43 max resid (incl. the buffer)=  1.03291E-14
 Non-SCF case, kpt   44 (  0.50000  0.00000  0.00000), residuals and eigenvalues=
  1.49E-19  9.76E-19  5.47E-19  4.11E-20  2.21E-19  9.88E-20  5.85E-19  1.89E-15
 -1.4253E-01 -4.5651E-02  1.6761E-01  1.6761E-01  2.6243E-01  3.3278E-01
  3.3278E-01  4.8775E-01
  prteigrs : nnsclo,ikpt=   50   44 max resid (incl. the buffer)=  1.88969E-15
================================================================================

 ----iterations are completed or convergence reached----

 Mean square residual over all n,k,spin=   5.9578E-08; max=  4.6052E-06
   0.5000  0.5000  0.0000    1  4.60524E-06 kpt; spin; max resid(k); each band:
  1.86E-19 9.45E-19 3.50E-19 1.75E-19 1.12E-19 2.13E-19 4.98E-10 4.61E-06
   0.4783  0.4783  0.0000    1  1.21840E-08 kpt; spin; max resid(k); each band:
  1.14E-19 1.51E-19 1.71E-19 3.74E-19 5.29E-20 8.59E-19 1.08E-09 1.22E-08
   0.4565  0.4565  0.0000    1  1.70177E-10 kpt; spin; max resid(k); each band:
  8.50E-19 2.11E-19 1.30E-19 3.26E-19 3.84E-19 2.90E-19 9.56E-11 1.70E-10
   0.4348  0.4348  0.0000    1  1.11860E-11 kpt; spin; max resid(k); each band:
  1.22E-19 6.72E-19 2.81E-19 9.69E-19 5.05E-19 8.21E-20 2.17E-12 1.12E-11
   0.4130  0.4130  0.0000    1  8.81585E-12 kpt; spin; max resid(k); each band:
  2.47E-19 3.69E-19 8.58E-19 4.14E-19 4.20E-19 1.56E-19 1.14E-12 8.82E-12
   0.3913  0.3913  0.0000    1  2.26176E-12 kpt; spin; max resid(k); each band:
  2.76E-19 6.76E-19 1.84E-19 6.57E-19 8.20E-19 2.56E-19 2.27E-13 2.26E-12
   0.3696  0.3696  0.0000    1  5.12012E-13 kpt; spin; max resid(k); each band:
  3.80E-19 9.35E-19 2.85E-19 1.31E-19 1.71E-19 2.45E-19 4.44E-13 5.12E-13
   0.3478  0.3478  0.0000    1  1.96787E-13 kpt; spin; max resid(k); each band:
  8.46E-19 1.07E-19 6.61E-19 6.29E-19 1.74E-19 6.97E-19 1.87E-13 1.97E-13
   0.3261  0.3261  0.0000    1  1.32073E-13 kpt; spin; max resid(k); each band:
  1.73E-19 9.13E-19 7.71E-19 8.68E-19 1.97E-19 1.85E-19 7.88E-14 1.32E-13
   0.3043  0.3043  0.0000    1  3.00774E-12 kpt; spin; max resid(k); each band:
  4.32E-19 1.68E-19 5.16E-19 2.53E-19 3.49E-19 5.55E-19 2.17E-13 3.01E-12
   0.2826  0.2826  0.0000    1  2.88469E-12 kpt; spin; max resid(k); each band:
  7.06E-19 1.73E-19 5.77E-19 2.76E-19 4.63E-19 2.69E-19 2.05E-13 2.88E-12
   0.2609  0.2609  0.0000    1  6.20908E-12 kpt; spin; max resid(k); each band:
  3.23E-19 3.66E-19 3.04E-19 2.67E-19 3.43E-19 3.18E-19 3.07E-13 6.21E-12
   0.2391  0.2391  0.0000    1  1.35338E-12 kpt; spin; max resid(k); each band:
  7.57E-19 8.87E-19 8.57E-19 3.10E-19 6.27E-19 3.10E-19 1.05E-14 1.35E-12
   0.2174  0.2174  0.0000    1  3.82608E-15 kpt; spin; max resid(k); each band:
  9.97E-19 8.46E-19 7.09E-19 3.15E-19 7.50E-19 4.31E-19 8.81E-16 3.83E-15
   0.1957  0.1957  0.0000    1  3.64835E-17 kpt; spin; max resid(k); each band:
  1.29E-19 8.41E-19 6.02E-19 3.27E-19 4.22E-19 5.41E-19 8.37E-18 3.65E-17
   0.1739  0.1739  0.0000    1  5.13050E-17 kpt; spin; max resid(k); each band:
  1.71E-19 3.58E-19 9.03E-19 1.60E-19 4.02E-19 3.01E-19 2.43E-17 5.13E-17
   0.1522  0.1522  0.0000    1  8.54080E-19 kpt; spin; max resid(k); each band:
  2.62E-19 2.83E-19 6.15E-19 8.54E-19 4.76E-19 4.64E-19 3.39E-19 8.22E-19
   0.1304  0.1304  0.0000    1  7.69399E-19 kpt; spin; max resid(k); each band:
  3.60E-19 2.87E-19 2.61E-19 7.69E-19 3.50E-19 3.17E-19 4.38E-19 5.82E-19
   0.1087  0.1087  0.0000    1  1.80713E-17 kpt; spin; max resid(k); each band:
  4.14E-19 6.28E-19 1.90E-19 2.72E-19 3.33E-19 9.27E-19 5.77E-19 1.81E-17
   0.0870  0.0870  0.0000    1  2.63932E-18 kpt; spin; max resid(k); each band:
  9.13E-19 8.11E-19 6.71E-19 7.02E-19 3.39E-19 9.87E-19 6.62E-19 2.64E-18
   0.0652  0.0652  0.0000    1  1.05691E-18 kpt; spin; max resid(k); each band:
  2.70E-19 3.30E-19 4.18E-19 6.52E-19 2.14E-19 2.76E-19 5.23E-19 1.06E-18
   0.0435  0.0435  0.0000    1  6.66836E-19 kpt; spin; max resid(k); each band:
  6.30E-19 2.48E-19 3.12E-19 3.15E-19 2.30E-19 1.99E-19 6.67E-19 2.77E-19
   0.0217  0.0217  0.0000    1  7.02130E-19 kpt; spin; max resid(k); each band:
  4.77E-19 1.79E-19 3.25E-19 2.82E-19 1.75E-19 4.04E-19 3.59E-19 7.02E-19
   0.0000  0.0000  0.0000    1  9.11133E-19 kpt; spin; max resid(k); each band:
  3.33E-19 1.57E-19 9.11E-19 7.06E-19 8.42E-19 4.76E-19 6.75E-19 8.35E-19
   0.0250  0.0000  0.0000    1  9.51959E-19 kpt; spin; max resid(k); each band:
  3.63E-19 5.39E-19 3.17E-19 1.52E-19 6.83E-19 5.34E-19 8.20E-19 9.52E-19
   0.0500  0.0000  0.0000    1  8.51666E-19 kpt; spin; max resid(k); each band:
  4.68E-19 4.89E-19 3.15E-19 7.57E-19 2.47E-19 7.92E-19 8.52E-19 2.19E-19
   0.0750  0.0000  0.0000    1  1.97930E-18 kpt; spin; max resid(k); each band:
  7.71E-19 8.90E-19 2.61E-19 3.92E-19 6.54E-19 1.79E-19 1.19E-19 1.98E-18
   0.1000  0.0000  0.0000    1  9.11842E-19 kpt; spin; max resid(k); each band:
  2.82E-19 7.82E-19 2.07E-19 4.43E-19 3.25E-19 1.66E-19 4.62E-19 9.12E-19
   0.1250  0.0000  0.0000    1  2.07531E-18 kpt; spin; max resid(k); each band:
  3.20E-19 1.58E-19 9.29E-19 1.85E-19 4.74E-19 4.06E-19 5.77E-19 2.08E-18
   0.1500  0.0000  0.0000    1  2.18934E-14 kpt; spin; max resid(k); each band:
  2.73E-19 5.76E-19 5.57E-19 4.42E-19 3.11E-19 8.06E-19 1.61E-19 2.19E-14
   0.1750  0.0000  0.0000    1  8.44057E-13 kpt; spin; max resid(k); each band:
  1.91E-19 2.46E-19 3.73E-19 2.76E-19 2.74E-19 9.90E-20 6.07E-19 8.44E-13
   0.2000  0.0000  0.0000    1  1.36023E-10 kpt; spin; max resid(k); each band:
  4.24E-19 4.25E-19 3.57E-19 6.33E-19 1.15E-19 5.33E-19 2.86E-19 1.36E-10
   0.2250  0.0000  0.0000    1  5.68606E-11 kpt; spin; max resid(k); each band:
  7.01E-19 2.02E-19 1.40E-19 6.30E-19 3.40E-19 7.84E-19 4.57E-19 5.69E-11
   0.2500  0.0000  0.0000    1  2.96999E-06 kpt; spin; max resid(k); each band:
  2.97E-19 1.46E-19 3.59E-19 9.53E-19 2.22E-19 3.38E-19 6.21E-19 2.97E-06
   0.2750  0.0000  0.0000    1  1.09026E-06 kpt; spin; max resid(k); each band:
  3.67E-19 8.83E-19 5.61E-19 5.58E-19 6.84E-19 9.21E-19 4.61E-19 1.09E-06
   0.3000  0.0000  0.0000    1  1.11332E-05 kpt; spin; max resid(k); each band:
  1.97E-19 5.37E-19 2.73E-19 4.63E-19 2.48E-19 4.55E-19 4.86E-19 1.11E-05
   0.3250  0.0000  0.0000    1  1.11071E-06 kpt; spin; max resid(k); each band:
  1.05E-19 1.91E-19 9.64E-19 4.04E-19 6.73E-19 9.77E-19 3.66E-19 1.11E-06
   0.3500  0.0000  0.0000    1  4.03554E-08 kpt; spin; max resid(k); each band:
  2.82E-19 2.39E-19 1.22E-19 1.88E-19 1.52E-19 3.21E-19 9.80E-19 4.04E-08
   0.3750  0.0000  0.0000    1  7.37853E-09 kpt; spin; max resid(k); each band:
  3.57E-19 3.50E-19 2.79E-19 2.15E-19 8.61E-19 9.87E-20 8.92E-19 7.38E-09
   0.4000  0.0000  0.0000    1  1.26512E-10 kpt; spin; max resid(k); each band:
  3.59E-19 6.05E-19 2.15E-19 2.99E-19 1.81E-19 6.61E-19 4.13E-19 1.27E-10
   0.4250  0.0000  0.0000    1  9.67244E-12 kpt; spin; max resid(k); each band:
  7.19E-19 6.18E-19 3.34E-19 2.38E-19 1.62E-19 7.93E-19 8.99E-19 9.67E-12
   0.4500  0.0000  0.0000    1  3.14566E-13 kpt; spin; max resid(k); each band:
  1.10E-19 2.15E-19 2.90E-19 8.57E-19 6.23E-19 1.68E-19 6.03E-19 3.15E-13
   0.4750  0.0000  0.0000    1  1.03291E-14 kpt; spin; max resid(k); each band:
  1.82E-19 6.42E-19 3.53E-19 2.37E-19 2.97E-19 5.12E-19 9.30E-19 1.03E-14
   0.5000  0.0000  0.0000    1  1.88969E-15 kpt; spin; max resid(k); each band:
  1.49E-19 9.76E-19 5.47E-19 4.11E-20 2.21E-19 9.88E-20 5.85E-19 1.89E-15
 reduced coordinates (array xred) for    2 atoms
       0.000000000000      0.000000000000      0.000000000000
       0.250000000000      0.250000000000      0.250000000000

 cartesian coordinates (angstrom) at end:
    1      0.00000000000000     0.00000000000000     0.00000000000000
    2      1.35773642293979     1.35773642293979     1.35773642293979
 length scales= 10.263000000000 10.263000000000 10.263000000000 bohr
              =  5.430945691759  5.430945691759  5.430945691759 angstroms
 prteigrs : about to open file /Users/Antonius/Work/kTools/abitools/Examples/01-banstructure/Bandstructure/run/out_data/odat_calc_DS2_EIG
 Eigenvalues (hartree) for nkpt=  44  k points:
 kpt#   1, nband=  8, wtk=  1.00000, kpt=  0.5000  0.5000  0.0000 (reduced coord)
  -0.07608  -0.07608   0.10660   0.10660   0.23381   0.23381   0.57594   0.57594
 kpt#   2, nband=  8, wtk=  1.00000, kpt=  0.4783  0.4783  0.0000 (reduced coord)
  -0.08826  -0.06354   0.10688   0.10688   0.23138   0.23707   0.57013   0.57013
 kpt#   3, nband=  8, wtk=  1.00000, kpt=  0.4565  0.4565  0.0000 (reduced coord)
  -0.10006  -0.05067   0.10770   0.10770   0.22976   0.24117   0.55790   0.55790
 kpt#   4, nband=  8, wtk=  1.00000, kpt=  0.4348  0.4348  0.0000 (reduced coord)
  -0.11144  -0.03750   0.10907   0.10907   0.22893   0.24614   0.54383   0.54383
 kpt#   5, nband=  8, wtk=  1.00000, kpt=  0.4130  0.4130  0.0000 (reduced coord)
  -0.12239  -0.02407   0.11099   0.11099   0.22885   0.25199   0.52921   0.52921
 kpt#   6, nband=  8, wtk=  1.00000, kpt=  0.3913  0.3913  0.0000 (reduced coord)
  -0.13288  -0.01042   0.11345   0.11345   0.22951   0.25872   0.51445   0.51445
 kpt#   7, nband=  8, wtk=  1.00000, kpt=  0.3696  0.3696  0.0000 (reduced coord)
  -0.14289   0.00344   0.11644   0.11644   0.23088   0.26635   0.49971   0.49971
 kpt#   8, nband=  8, wtk=  1.00000, kpt=  0.3478  0.3478  0.0000 (reduced coord)
  -0.15241   0.01746   0.11996   0.11996   0.23294   0.27486   0.48505   0.48505
 kpt#   9, nband=  8, wtk=  1.00000, kpt=  0.3261  0.3261  0.0000 (reduced coord)
  -0.16142   0.03159   0.12399   0.12399   0.23565   0.28423   0.47051   0.47051
 kpt#  10, nband=  8, wtk=  1.00000, kpt=  0.3043  0.3043  0.0000 (reduced coord)
  -0.16991   0.04581   0.12854   0.12854   0.23897   0.29441   0.45609   0.45609
 kpt#  11, nband=  8, wtk=  1.00000, kpt=  0.2826  0.2826  0.0000 (reduced coord)
  -0.17786   0.06009   0.13357   0.13357   0.24288   0.30535   0.44183   0.44183
 kpt#  12, nband=  8, wtk=  1.00000, kpt=  0.2609  0.2609  0.0000 (reduced coord)
  -0.18527   0.07439   0.13908   0.13908   0.24734   0.31689   0.42774   0.42774
 kpt#  13, nband=  8, wtk=  1.00000, kpt=  0.2391  0.2391  0.0000 (reduced coord)
  -0.19211   0.08867   0.14504   0.14504   0.25228   0.32884   0.41384   0.41384
 kpt#  14, nband=  8, wtk=  1.00000, kpt=  0.2174  0.2174  0.0000 (reduced coord)
  -0.19839   0.10291   0.15141   0.15141   0.25764   0.34080   0.40016   0.40016
 kpt#  15, nband=  8, wtk=  1.00000, kpt=  0.1957  0.1957  0.0000 (reduced coord)
  -0.20410   0.11706   0.15816   0.15816   0.26336   0.35205   0.38676   0.38676
 kpt#  16, nband=  8, wtk=  1.00000, kpt=  0.1739  0.1739  0.0000 (reduced coord)
  -0.20922   0.13107   0.16524   0.16524   0.26932   0.36124   0.37370   0.37370
 kpt#  17, nband=  8, wtk=  1.00000, kpt=  0.1522  0.1522  0.0000 (reduced coord)
  -0.21375   0.14487   0.17255   0.17255   0.27542   0.36105   0.36105   0.36623
 kpt#  18, nband=  8, wtk=  1.00000, kpt=  0.1304  0.1304  0.0000 (reduced coord)
  -0.21769   0.15833   0.18001   0.18001   0.28149   0.34895   0.34895   0.36522
 kpt#  19, nband=  8, wtk=  1.00000, kpt=  0.1087  0.1087  0.0000 (reduced coord)
  -0.22102   0.17129   0.18745   0.18745   0.28735   0.33755   0.33755   0.35897
 kpt#  20, nband=  8, wtk=  1.00000, kpt=  0.0870  0.0870  0.0000 (reduced coord)
  -0.22376   0.18346   0.19463   0.19463   0.29275   0.32711   0.32711   0.34999
 kpt#  21, nband=  8, wtk=  1.00000, kpt=  0.0652  0.0652  0.0000 (reduced coord)
  -0.22589   0.19440   0.20121   0.20121   0.29742   0.31798   0.31798   0.34048
 kpt#  22, nband=  8, wtk=  1.00000, kpt=  0.0435  0.0435  0.0000 (reduced coord)
  -0.22741   0.20342   0.20668   0.20668   0.30106   0.31069   0.31069   0.33206
 kpt#  23, nband=  8, wtk=  1.00000, kpt=  0.0217  0.0217  0.0000 (reduced coord)
  -0.22832   0.20953   0.21039   0.21039   0.30339   0.30588   0.30588   0.32618
 kpt#  24, nband=  8, wtk=  1.00000, kpt=  0.0000  0.0000  0.0000 (reduced coord)
  -0.22862   0.21172   0.21172   0.21172   0.30419   0.30419   0.30419   0.32404
 kpt#  25, nband=  8, wtk=  1.00000, kpt=  0.0250  0.0000  0.0000 (reduced coord)
  -0.22832   0.20802   0.21119   0.21119   0.30495   0.30495   0.30501   0.32632
 kpt#  26, nband=  8, wtk=  1.00000, kpt=  0.0500  0.0000  0.0000 (reduced coord)
  -0.22742   0.19819   0.20967   0.20967   0.30567   0.30717   0.30717   0.33374
 kpt#  27, nband=  8, wtk=  1.00000, kpt=  0.0750  0.0000  0.0000 (reduced coord)
  -0.22591   0.18456   0.20732   0.20732   0.30466   0.31060   0.31060   0.34563
 kpt#  28, nband=  8, wtk=  1.00000, kpt=  0.1000  0.0000  0.0000 (reduced coord)
  -0.22381   0.16886   0.20437   0.20437   0.30232   0.31493   0.31493   0.36010
 kpt#  29, nband=  8, wtk=  1.00000, kpt=  0.1250  0.0000  0.0000 (reduced coord)
  -0.22111   0.15210   0.20103   0.20103   0.29920   0.31978   0.31978   0.37580
 kpt#  30, nband=  8, wtk=  1.00000, kpt=  0.1500  0.0000  0.0000 (reduced coord)
  -0.21783   0.13486   0.19748   0.19748   0.29565   0.32476   0.32476   0.39202
 kpt#  31, nband=  8, wtk=  1.00000, kpt=  0.1750  0.0000  0.0000 (reduced coord)
  -0.21398   0.11748   0.19388   0.19388   0.29189   0.32947   0.32947   0.40838
 kpt#  32, nband=  8, wtk=  1.00000, kpt=  0.2000  0.0000  0.0000 (reduced coord)
  -0.20957   0.10017   0.19033   0.19033   0.28809   0.33355   0.33355   0.42466
 kpt#  33, nband=  8, wtk=  1.00000, kpt=  0.2250  0.0000  0.0000 (reduced coord)
  -0.20462   0.08311   0.18692   0.18692   0.28436   0.33671   0.33671   0.44069
 kpt#  34, nband=  8, wtk=  1.00000, kpt=  0.2500  0.0000  0.0000 (reduced coord)
  -0.19916   0.06640   0.18370   0.18370   0.28079   0.33878   0.33878   0.45625
 kpt#  35, nband=  8, wtk=  1.00000, kpt=  0.2750  0.0000  0.0000 (reduced coord)
  -0.19323   0.05015   0.18073   0.18073   0.27745   0.33977   0.33977   0.47083
 kpt#  36, nband=  8, wtk=  1.00000, kpt=  0.3000  0.0000  0.0000 (reduced coord)
  -0.18688   0.03447   0.17802   0.17802   0.27439   0.33983   0.33983   0.48327
 kpt#  37, nband=  8, wtk=  1.00000, kpt=  0.3250  0.0000  0.0000 (reduced coord)
  -0.18017   0.01947   0.17561   0.17561   0.27164   0.33919   0.33919   0.49130
 kpt#  38, nband=  8, wtk=  1.00000, kpt=  0.3500  0.0000  0.0000 (reduced coord)
  -0.17322   0.00528   0.17350   0.17350   0.26923   0.33811   0.33811   0.49403
 kpt#  39, nband=  8, wtk=  1.00000, kpt=  0.3750  0.0000  0.0000 (reduced coord)
  -0.16618  -0.00791   0.17171   0.17171   0.26717   0.33684   0.33684   0.49356
 kpt#  40, nband=  8, wtk=  1.00000, kpt=  0.4000  0.0000  0.0000 (reduced coord)
  -0.15928  -0.01987   0.17023   0.17023   0.26547   0.33555   0.33555   0.49199
 kpt#  41, nband=  8, wtk=  1.00000, kpt=  0.4250  0.0000  0.0000 (reduced coord)
  -0.15288  -0.03021   0.16909   0.16909   0.26414   0.33441   0.33441   0.49031
 kpt#  42, nband=  8, wtk=  1.00000, kpt=  0.4500  0.0000  0.0000 (reduced coord)
  -0.14751  -0.03840   0.16827   0.16827   0.26319   0.33353   0.33353   0.48893
 kpt#  43, nband=  8, wtk=  1.00000, kpt=  0.4750  0.0000  0.0000 (reduced coord)
  -0.14384  -0.04377   0.16777   0.16777   0.26262   0.33297   0.33297   0.48805
 kpt#  44, nband=  8, wtk=  1.00000, kpt=  0.5000  0.0000  0.0000 (reduced coord)
  -0.14253  -0.04565   0.16761   0.16761   0.26243   0.33278   0.33278   0.48775
 Total charge density [el/Bohr^3]
,     Maximum=    8.5017E-02  at reduced coord.    0.1481    0.1481    0.5556
,Next maximum=    8.5017E-02  at reduced coord.    0.1481    0.5556    0.1481
,     Minimum=    3.4635E-03  at reduced coord.    0.7407    0.7407    0.7407
,Next minimum=    3.4635E-03  at reduced coord.    0.7778    0.7407    0.7407
,  Integrated=    8.0000E+00

== END DATASET(S) ==============================================================
================================================================================
  
 -outvars: echo values of variables after computation  --------
            acell      1.0263000000E+01  1.0263000000E+01  1.0263000000E+01 Bohr
              amu      2.80855000E+01
           diemac      9.00000000E+00
             ecut      1.50000000E+01 Hartree
           ecutsm      5.00000000E-01 Hartree
           etotal1    -8.8762196042E+00
            fcart1    -0.0000000000E+00 -0.0000000000E+00 -0.0000000000E+00
                      -0.0000000000E+00 -0.0000000000E+00 -0.0000000000E+00
-          fftalg         112
           irdden1          0
           irdden2          1
             iscf1          7
             iscf2         -2
           istwfk2       7    0    0    0    0    0    0    0    0    0
                         0    0    0    0    0    0    0    0    0    0
                         0    0    0    2    0    0    0    0    0    0
                         0    0    0    0    0    0    0    0    0    0
                         0    0    0    3
           jdtset        1    2
              kpt1    -1.25000000E-01 -2.50000000E-01  0.00000000E+00
                      -1.25000000E-01  5.00000000E-01  0.00000000E+00
                      -2.50000000E-01 -3.75000000E-01  0.00000000E+00
                      -1.25000000E-01 -3.75000000E-01  1.25000000E-01
                      -1.25000000E-01  2.50000000E-01  0.00000000E+00
                      -2.50000000E-01  3.75000000E-01  0.00000000E+00
                      -3.75000000E-01  5.00000000E-01  0.00000000E+00
                      -2.50000000E-01  5.00000000E-01  1.25000000E-01
                      -1.25000000E-01  0.00000000E+00  0.00000000E+00
                      -3.75000000E-01  0.00000000E+00  0.00000000E+00
              kpt2     5.00000000E-01  5.00000000E-01  0.00000000E+00
                       4.78260870E-01  4.78260870E-01  0.00000000E+00
                       4.56521739E-01  4.56521739E-01  0.00000000E+00
                       4.34782609E-01  4.34782609E-01  0.00000000E+00
                       4.13043478E-01  4.13043478E-01  0.00000000E+00
                       3.91304348E-01  3.91304348E-01  0.00000000E+00
                       3.69565217E-01  3.69565217E-01  0.00000000E+00
                       3.47826087E-01  3.47826087E-01  0.00000000E+00
                       3.26086957E-01  3.26086957E-01  0.00000000E+00
                       3.04347826E-01  3.04347826E-01  0.00000000E+00
                       2.82608696E-01  2.82608696E-01  0.00000000E+00
                       2.60869565E-01  2.60869565E-01  0.00000000E+00
                       2.39130435E-01  2.39130435E-01  0.00000000E+00
                       2.17391304E-01  2.17391304E-01  0.00000000E+00
                       1.95652174E-01  1.95652174E-01  0.00000000E+00
                       1.73913043E-01  1.73913043E-01  0.00000000E+00
                       1.52173913E-01  1.52173913E-01  0.00000000E+00
                       1.30434783E-01  1.30434783E-01  0.00000000E+00
                       1.08695652E-01  1.08695652E-01  0.00000000E+00
                       8.69565217E-02  8.69565217E-02  0.00000000E+00
                       6.52173913E-02  6.52173913E-02  0.00000000E+00
                       4.34782609E-02  4.34782609E-02  0.00000000E+00
                       2.17391304E-02  2.17391304E-02  0.00000000E+00
                       0.00000000E+00  0.00000000E+00  0.00000000E+00
                       2.50000000E-02  0.00000000E+00  0.00000000E+00
                       5.00000000E-02  0.00000000E+00  0.00000000E+00
                       7.50000000E-02  0.00000000E+00  0.00000000E+00
                       1.00000000E-01  0.00000000E+00  0.00000000E+00
                       1.25000000E-01  0.00000000E+00  0.00000000E+00
                       1.50000000E-01  0.00000000E+00  0.00000000E+00
                       1.75000000E-01  0.00000000E+00  0.00000000E+00
                       2.00000000E-01  0.00000000E+00  0.00000000E+00
                       2.25000000E-01  0.00000000E+00  0.00000000E+00
                       2.50000000E-01  0.00000000E+00  0.00000000E+00
                       2.75000000E-01  0.00000000E+00  0.00000000E+00
                       3.00000000E-01  0.00000000E+00  0.00000000E+00
                       3.25000000E-01  0.00000000E+00  0.00000000E+00
                       3.50000000E-01  0.00000000E+00  0.00000000E+00
                       3.75000000E-01  0.00000000E+00  0.00000000E+00
                       4.00000000E-01  0.00000000E+00  0.00000000E+00
                       4.25000000E-01  0.00000000E+00  0.00000000E+00
                       4.50000000E-01  0.00000000E+00  0.00000000E+00
                       4.75000000E-01  0.00000000E+00  0.00000000E+00
                       5.00000000E-01  0.00000000E+00  0.00000000E+00
           kptopt1          1
           kptopt2         -2
         kptrlatt        4   -4    4     -4    4    4     -4   -4    4
          kptrlen1     4.10520000E+01
          kptrlen2     3.00000000E+01
P           mkmem1          3
P           mkmem2         11
            natom           2
            nband1          5
            nband2          8
           nbdbuf1          0
           nbdbuf2          2
           ndtset           2
            ngfft          27      27      27
             nkpt1         10
             nkpt2         44
            nstep          50
             nsym          48
           ntypat           1
              occ      2.000000  2.000000  2.000000  2.000000  0.000000
            rprim      0.0000000000E+00  5.0000000000E-01  5.0000000000E-01
                       5.0000000000E-01  0.0000000000E+00  5.0000000000E-01
                       5.0000000000E-01  5.0000000000E-01  0.0000000000E+00
           shiftk      5.00000000E-01  5.00000000E-01  5.00000000E-01
          spgroup         227
           strten1     5.7413759038E-05  5.7413759038E-05  5.7413759038E-05
                       0.0000000000E+00  0.0000000000E+00  0.0000000000E+00
           symrel      1  0  0   0  1  0   0  0  1      -1  0  0   0 -1  0   0  0 -1
                       0 -1  1   0 -1  0   1 -1  0       0  1 -1   0  1  0  -1  1  0
                      -1  0  0  -1  0  1  -1  1  0       1  0  0   1  0 -1   1 -1  0
                       0  1 -1   1  0 -1   0  0 -1       0 -1  1  -1  0  1   0  0  1
                      -1  0  0  -1  1  0  -1  0  1       1  0  0   1 -1  0   1  0 -1
                       0 -1  1   1 -1  0   0 -1  0       0  1 -1  -1  1  0   0  1  0
                       1  0  0   0  0  1   0  1  0      -1  0  0   0  0 -1   0 -1  0
                       0  1 -1   0  0 -1   1  0 -1       0 -1  1   0  0  1  -1  0  1
                      -1  0  1  -1  1  0  -1  0  0       1  0 -1   1 -1  0   1  0  0
                       0 -1  0   1 -1  0   0 -1  1       0  1  0  -1  1  0   0  1 -1
                       1  0 -1   0  0 -1   0  1 -1      -1  0  1   0  0  1   0 -1  1
                       0  1  0   0  0  1   1  0  0       0 -1  0   0  0 -1  -1  0  0
                       1  0 -1   0  1 -1   0  0 -1      -1  0  1   0 -1  1   0  0  1
                       0 -1  0   0 -1  1   1 -1  0       0  1  0   0  1 -1  -1  1  0
                      -1  0  1  -1  0  0  -1  1  0       1  0 -1   1  0  0   1 -1  0
                       0  1  0   1  0  0   0  0  1       0 -1  0  -1  0  0   0  0 -1
                       0  0 -1   0  1 -1   1  0 -1       0  0  1   0 -1  1  -1  0  1
                       1 -1  0   0 -1  1   0 -1  0      -1  1  0   0  1 -1   0  1  0
                       0  0  1   1  0  0   0  1  0       0  0 -1  -1  0  0   0 -1  0
                      -1  1  0  -1  0  0  -1  0  1       1 -1  0   1  0  0   1  0 -1
                       0  0  1   0  1  0   1  0  0       0  0 -1   0 -1  0  -1  0  0
                       1 -1  0   0 -1  0   0 -1  1      -1  1  0   0  1  0   0  1 -1
                       0  0 -1   1  0 -1   0  1 -1       0  0  1  -1  0  1   0 -1  1
                      -1  1  0  -1  0  1  -1  0  0       1 -1  0   1  0 -1   1  0  0
            tnons      0.0000000  0.0000000  0.0000000     0.2500000  0.2500000  0.2500000
                       0.0000000  0.0000000  0.0000000     0.2500000  0.2500000  0.2500000
                       0.0000000  0.0000000  0.0000000     0.2500000  0.2500000  0.2500000
                       0.0000000  0.0000000  0.0000000     0.2500000  0.2500000  0.2500000
                       0.0000000  0.0000000  0.0000000     0.2500000  0.2500000  0.2500000
                       0.0000000  0.0000000  0.0000000     0.2500000  0.2500000  0.2500000
                       0.0000000  0.0000000  0.0000000     0.2500000  0.2500000  0.2500000
                       0.0000000  0.0000000  0.0000000     0.2500000  0.2500000  0.2500000
                       0.0000000  0.0000000  0.0000000     0.2500000  0.2500000  0.2500000
                       0.0000000  0.0000000  0.0000000     0.2500000  0.2500000  0.2500000
                       0.0000000  0.0000000  0.0000000     0.2500000  0.2500000  0.2500000
                       0.0000000  0.0000000  0.0000000     0.2500000  0.2500000  0.2500000
                       0.0000000  0.0000000  0.0000000     0.2500000  0.2500000  0.2500000
                       0.0000000  0.0000000  0.0000000     0.2500000  0.2500000  0.2500000
                       0.0000000  0.0000000  0.0000000     0.2500000  0.2500000  0.2500000
                       0.0000000  0.0000000  0.0000000     0.2500000  0.2500000  0.2500000
                       0.0000000  0.0000000  0.0000000     0.2500000  0.2500000  0.2500000
                       0.0000000  0.0000000  0.0000000     0.2500000  0.2500000  0.2500000
                       0.0000000  0.0000000  0.0000000     0.2500000  0.2500000  0.2500000
                       0.0000000  0.0000000  0.0000000     0.2500000  0.2500000  0.2500000
                       0.0000000  0.0000000  0.0000000     0.2500000  0.2500000  0.2500000
                       0.0000000  0.0000000  0.0000000     0.2500000  0.2500000  0.2500000
                       0.0000000  0.0000000  0.0000000     0.2500000  0.2500000  0.2500000
                       0.0000000  0.0000000  0.0000000     0.2500000  0.2500000  0.2500000
           tolvrs1     1.00000000E-14
           tolvrs2     0.00000000E+00
           tolwfr1     0.00000000E+00
           tolwfr2     1.00000000E-18
            typat      1  1
              wtk1       0.09375    0.09375    0.09375    0.18750    0.09375    0.09375
                         0.09375    0.18750    0.03125    0.03125
              wtk2       1.00000    1.00000    1.00000    1.00000    1.00000    1.00000
                         1.00000    1.00000    1.00000    1.00000    1.00000    1.00000
                         1.00000    1.00000    1.00000    1.00000    1.00000    1.00000
                         1.00000    1.00000    1.00000    1.00000    1.00000    1.00000
                         1.00000    1.00000    1.00000    1.00000    1.00000    1.00000
                         1.00000    1.00000    1.00000    1.00000    1.00000    1.00000
                         1.00000    1.00000    1.00000    1.00000    1.00000    1.00000
                         1.00000    1.00000
           xangst      0.0000000000E+00  0.0000000000E+00  0.0000000000E+00
                       1.3577364229E+00  1.3577364229E+00  1.3577364229E+00
            xcart      0.0000000000E+00  0.0000000000E+00  0.0000000000E+00
                       2.5657500000E+00  2.5657500000E+00  2.5657500000E+00
             xred      0.0000000000E+00  0.0000000000E+00  0.0000000000E+00
                       2.5000000000E-01  2.5000000000E-01  2.5000000000E-01
            znucl       14.00000

================================================================================


- Timing analysis has been suppressed with timopt=0



================================================================================

 Suggested references for the acknowledgment of ABINIT usage.

 The users of ABINIT have little formal obligations with respect to the ABINIT group
 (those specified in the GNU General Public License, http://www.gnu.org/copyleft/gpl.txt).
 However, it is common practice in the scientific literature,
 to acknowledge the efforts of people that have made the research possible.
 In this spirit, please find below suggested citations of work written by ABINIT developers,
 corresponding to implementations inside of ABINIT that you have used in the present run.
 Note also that it will be of great value to readers of publications presenting these results,
 to read papers enabling them to understand the theoretical formalism and details
 of the ABINIT implementation.
 For information on why they are suggested, see also http://www.abinit.org/about/?text=acknowledgments.
-
- [1] ABINIT : First-principles approach of materials and nanosystem properties.
- X. Gonze, B. Amadon, P.-M. Anglade, J.-M. Beuken, F. Bottin, P. Boulanger, F. Bruneval,
- D. Caliste, R. Caracas, M. Cote, T. Deutsch, L. Genovese, Ph. Ghosez, M. Giantomassi
- S. Goedecker, D.R. Hamann, P. Hermet, F. Jollet, G. Jomard, S. Leroux, M. Mancini, S. Mazevet,
- M.J.T. Oliveira, G. Onida, Y. Pouillon, T. Rangel, G.-M. Rignanese, D. Sangalli, R. Shaltaf,
- M. Torrent, M.J. Verstraete, G. Zerah, J.W. Zwanziger
- Computer Phys. Comm. 180, 2582-2615 (2009).
- Comment : the third generic paper describing the ABINIT project.
- Note that a version of this paper, that is not formatted for Computer Phys. Comm. 
- is available at http://www.abinit.org/about/ABINIT_CPC_v10.pdf .
- The licence allows the authors to put it on the Web.
-
- [2] A brief introduction to the ABINIT software package.
- X. Gonze, G.-M. Rignanese, M. Verstraete, J.-M. Beuken, Y. Pouillon, R. Caracas, F. Jollet,
- M. Torrent, G. Zerah, M. Mikami, Ph. Ghosez, M. Veithen, J.-Y. Raty, V. Olevano, F. Bruneval,
- L. Reining, R. Godby, G. Onida, D.R. Hamann, and D.C. Allan.
- Z. Kristallogr. 220, 558-562 (2005).
- Comment : the second generic paper describing the ABINIT project. Note that this paper
- should be cited especially if you are using the GW part of ABINIT, as several authors
- of this part are not in the list of authors of the first or third paper.
- The .pdf of the latter paper is available at http://www.abinit.org/about/zfk_0505-06_558-562.pdf.
- Note that it should not redistributed (Copyright by Oldenburg Wissenshaftverlag,
- the licence allows the authors to put it on the Web).
-
- And optionally:
-
- [3] First-principles computation of material properties : the ABINIT software project. 
- X. Gonze, J.-M. Beuken, R. Caracas, F. Detraux, M. Fuchs, G.-M. Rignanese, L. Sindic,
- M. Verstraete, G. Zerah, F. Jollet, M. Torrent, A. Roy, M. Mikami, Ph. Ghosez, J.-Y. Raty, D.C. Allan.
- Computational Materials Science 25, 478-492 (2002). http://dx.doi.org/10.1016/S0927-0256(02)00325-7
- Comment : the original paper describing the ABINIT project.
-
- [4] Fast radix 2, 3, 4 and 5 kernels for Fast Fourier Transformations
- on computers with overlapping multiply-add instructions.
- S. Goedecker, SIAM J. on Scientific Computing 18, 1605 (1997).
-
- Proc.   0 individual time (sec): cpu=          2.1  wall=          2.2

================================================================================

 Calculation completed.
.Delivered   0 WARNINGs and   0 COMMENTs to log file.
+Overall time at end (sec) : cpu=          8.6  wall=          8.9
